32
Lattice="7.04 0.0 0.0 0.0 7.04 0.0 0.0 0.0 7.04" Properties=species:S:1:pos:R:3 timestep=0 structure_name=FCC_32_rank8_score0.1130_Fe20Ni12 temperature=100.0 pressure=1.0 pbc="T T T"
Ni       0.00000000       0.00000000       0.00000000
Fe       0.00000000       1.76000000       1.76000000
Ni       0.00000000       0.00000000       3.52000000
Fe       0.00000000       1.76000000       5.28000000
Ni       0.00000000       3.52000000       0.00000000
Ni       0.00000000       5.28000000       1.76000000
Fe       0.00000000       3.52000000       3.52000000
Ni       0.00000000       5.28000000       5.28000000
Fe       1.76000000       1.76000000       0.00000000
Fe       1.76000000       0.00000000       1.76000000
Fe       1.76000000       1.76000000       3.52000000
Ni       1.76000000       0.00000000       5.28000000
Fe       1.76000000       5.28000000       0.00000000
Fe       1.76000000       3.52000000       1.76000000
Fe       1.76000000       5.28000000       3.52000000
Fe       1.76000000       3.52000000       5.28000000
Fe       3.52000000       0.00000000       0.00000000
Ni       3.52000000       1.76000000       1.76000000
Fe       3.52000000       0.00000000       3.52000000
Fe       3.52000000       1.76000000       5.28000000
Ni       3.52000000       3.52000000       0.00000000
Fe       3.52000000       5.28000000       1.76000000
Fe       3.52000000       3.52000000       3.52000000
Fe       3.52000000       5.28000000       5.28000000
Ni       5.28000000       1.76000000       0.00000000
Ni       5.28000000       0.00000000       1.76000000
Fe       5.28000000       1.76000000       3.52000000
Ni       5.28000000       0.00000000       5.28000000
Fe       5.28000000       5.28000000       0.00000000
Fe       5.28000000       3.52000000       1.76000000
Fe       5.28000000       5.28000000       3.52000000
Ni       5.28000000       3.52000000       5.28000000
32
Lattice="6.703276013944893 0.0 0.0 0.0 6.710352452371927 0.0 0.0 0.0 6.697443690722107" Properties=species:S:1:pos:R:3 timestep=1000 structure_name=FCC_32_rank8_score0.1130_Fe20Ni12 temperature=100.0 pressure=1.0 pbc="T T T"
Ni       0.15543700       0.19053600       0.19890600
Ni       0.19811100       3.51156000       0.18143500
Fe       0.14893400       1.91890000       1.84049000
Ni       0.18200700       0.23808700       3.49855000
Fe       0.18268500       3.47874000       3.46282000
Fe       0.20009400       1.82675000       5.19301000
Ni       0.16663600       5.16331000       1.85518000
Ni       0.17051300       5.19723000       5.26419000
Fe       1.86392000       1.78955000       0.17588900
Fe       1.88643000       0.15765200       1.83549000
Ni       3.45111000       1.80813000       1.88660000
Fe       1.87598000       3.47175000       1.84836000
Fe       1.87852000       1.91852000       3.52289000
Ni       1.89833000       0.18766600       5.21932000
Fe       3.46211000       1.89535000       5.21586000
Fe       1.84384000       3.48982000       5.15936000
Fe       1.88909000       5.22055000       0.16347200
Fe       3.51620000       5.21919000       1.83644000
Fe       1.89613000       5.16653000       3.52770000
Fe       3.51425000       3.50457000       3.49267000
Fe       3.49352000       0.11569600       3.54332000
Fe       3.52154000       5.17126000       5.17562000
Ni       3.49924000       3.54785000       0.16688600
Fe       3.46786000       0.16057300       0.16817400
Ni       5.18631000       1.87467000       0.18805900
Fe       5.19255000       1.85419000       3.52890000
Ni       5.20448000       3.49793000       5.13362000
Fe       5.18854000       5.16891000       0.15753400
Fe       5.18510000       3.53326000       1.87857000
Ni       5.18686000       0.16575100       1.81392000
Fe       5.16812000       5.17350000       3.50938000
Ni       5.15527000       0.17580600       5.20301000
32
Lattice="6.70388209103454 0.0 0.0 0.0 6.7065771028518455 0.0 0.0 0.0 6.694552255665872" Properties=species:S:1:pos:R:3 timestep=2000 structure_name=FCC_32_rank8_score0.1130_Fe20Ni12 temperature=100.0 pressure=1.0 pbc="T T T"
Ni       0.17803500       0.22353600       0.16028800
Ni       0.18648600       3.48200000       0.20607700
Fe       0.24533500       1.84955000       1.87227000
Ni       0.17201900       0.18830000       3.54728000
Fe       0.19020400       3.49319000       3.50113000
Fe       0.15890100       1.86585000       5.20793000
Ni       0.19391000       5.18732000       1.87895000
Ni       0.19687900       5.17073000       5.15680000
Fe       1.92156000       1.81804000       0.20530700
Fe       1.85789000       0.17536600       1.86450000
Ni       3.46092000       1.80091000       1.86795000
Fe       1.87657000       3.50495000       1.84903000
Fe       1.83004000       1.85264000       3.53635000
Ni       1.89508000       0.17558900       5.20897000
Fe       3.52147000       1.86250000       5.15493000
Fe       1.86897000       3.53993000       5.16664000
Fe       1.81808000       5.20264000       0.13766500
Fe       3.46983000       5.17531000       1.86542000
Fe       1.90433000       5.15914000       3.49185000
Fe       3.53033000       3.51456000       3.49257000
Fe       3.49134000       0.16779900       3.48716000
Fe       3.54215000       5.19201000       5.20654000
Ni       3.48429000       3.56697000       0.16758400
Fe       3.53711000       0.16213400       0.16127200
Ni       5.17916000       1.88016000       0.18169300
Fe       5.12780000       1.83222000       3.49663000
Ni       5.20549000       3.54081000       5.14124000
Fe       5.15510000       5.15148000       0.17035200
Fe       5.13886000       3.54100000       1.89672000
Ni       5.16822000       0.14167300       1.81946000
Fe       5.15656000       5.23743000       3.52177000
Ni       5.16283000       0.15586600       5.23699000
32
Lattice="6.688128113948718 0.0 0.0 0.0 6.710288644518874 0.0 0.0 0.0 6.676769596884071" Properties=species:S:1:pos:R:3 timestep=3000 structure_name=FCC_32_rank8_score0.1130_Fe20Ni12 temperature=100.0 pressure=1.0 pbc="T T T"
Ni       0.19274100       0.15511500       0.16776500
Ni       0.21386500       3.48981000       0.19814900
Fe       0.20061700       1.83356000       1.85919000
Ni       0.15532000       0.18023200       3.50465000
Fe       0.22641200       3.51145000       3.51199000
Fe       0.22267800       1.86446000       5.16535000
Ni       0.20462800       5.17471000       1.91894000
Ni       0.19512700       5.15052000       5.15882000
Fe       1.88402000       1.88401000       0.20279500
Fe       1.85775000       0.17136300       1.83593000
Ni       3.47858000       1.84897000       1.90824000
Fe       1.85283000       3.53004000       1.85388000
Fe       1.78735000       1.85628000       3.53094000
Ni       1.91176000       0.17974400       5.18005000
Fe       3.48470000       1.88732000       5.13226000
Fe       1.84278000       3.48803000       5.12492000
Fe       1.87700000       5.20423000       0.19830100
Fe       3.49335000       5.14581000       1.85987000
Fe       1.95658000       5.18141000       3.50278000
Fe       3.50225000       3.50333000       3.53637000
Fe       3.49704000       0.19997600       3.49510000
Fe       3.50962000       5.18257000       5.16924000
Ni       3.46441000       3.54877000       0.16872500
Fe       3.52494000       0.11224900       0.24108200
Ni       5.15609000       1.84046000       0.17190700
Fe       5.19710000       1.91589000       3.51326000
Ni       5.20466000       3.52165000       5.21838000
Fe       5.16858000       5.19516000       0.22335600
Fe       5.15770000       3.53347000       1.90378000
Ni       5.18466000       0.16358800       1.83726000
Fe       5.13450000       5.18390000       3.50753000
Ni       5.14911000       0.16316700       5.13168000
32
Lattice="6.689953147724525 0.0 0.0 0.0 6.71521424278212 0.0 0.0 0.0 6.681747683017111" Properties=species:S:1:pos:R:3 timestep=4000 structure_name=FCC_32_rank8_score0.1130_Fe20Ni12 temperature=100.0 pressure=1.0 pbc="T T T"
Ni       0.16969500       0.18016100       0.17207500
Ni       0.19006700       3.50912000       0.16286200
Fe       0.18114500       1.93098000       1.85466000
Ni       0.20318500       0.18363200       3.53928000
Fe       0.16041900       3.50830000       3.49479000
Fe       0.16447000       1.82880000       5.21968000
Ni       0.15650400       5.13543000       1.86321000
Ni       0.19773700       5.17737000       5.17941000
Fe       1.84467000       1.88777000       0.21866700
Fe       1.81730000       0.19364000       1.83037000
Ni       3.46512000       1.79764000       1.88129000
Fe       1.89037000       3.53885000       1.82920000
Fe       1.82604000       1.84267000       3.54332000
Ni       1.92090000       0.15950600       5.19673000
Fe       3.47020000       1.85812000       5.16394000
Fe       1.85690000       3.50832000       5.15106000
Fe       1.88720000       5.20119000       0.20362400
Fe       3.54660000       5.24569000       1.85013000
Fe       1.94168000       5.12552000       3.46827000
Fe       3.55183000       3.52411000       3.50243000
Fe       3.47101000       0.19411200       3.50986000
Fe       3.53103000       5.14571000       5.23385000
Ni       3.50213000       3.58706000       0.20094400
Fe       3.53917000       0.08884690       0.15740400
Ni       5.10694000       1.81395000       0.18488400
Fe       5.24584000       1.88385000       3.51842000
Ni       5.21944000       3.52870000       5.17526000
Fe       5.20729000       5.17585000       0.18455600
Fe       5.15399000       3.56683000       1.90490000
Ni       5.20973000       0.12402700       1.86839000
Fe       5.14304000       5.20227000       3.52140000
Ni       5.11255000       0.13714100       5.12788000
32
Lattice="6.683545469158982 0.0 0.0 0.0 6.706707031035769 0.0 0.0 0.0 6.668606730623425" Properties=species:S:1:pos:R:3 timestep=5000 structure_name=FCC_32_rank8_score0.1130_Fe20Ni12 temperature=100.0 pressure=1.0 pbc="T T T"
Ni       0.19043900       0.18670300       0.17691000
Ni       0.25237900       3.51465000       0.20072400
Fe       0.19493400       1.88685000       1.86816000
Ni       0.20564300       0.17865100       3.52599000
Fe       0.13171900       3.49385000       3.50830000
Fe       0.18988300       1.88852000       5.19963000
Ni       0.16479700       5.16235000       1.87554000
Ni       0.19072800       5.13947000       5.13907000
Fe       1.82386000       1.87572000       0.16632100
Fe       1.90436000       0.15672000       1.85145000
Ni       3.46844000       1.83054000       1.85222000
Fe       1.87032000       3.54694000       1.88762000
Fe       1.83712000       1.89589000       3.50571000
Ni       1.83893000       0.20243600       5.18237000
Fe       3.51752000       1.83225000       5.14648000
Fe       1.86177000       3.52777000       5.14051000
Fe       1.90953000       5.22438000       0.23682700
Fe       3.57030000       5.16188000       1.89789000
Fe       1.90791000       5.19047000       3.51599000
Fe       3.56354000       3.51452000       3.54600000
Fe       3.47216000       0.17179600       3.50643000
Fe       3.52149000       5.20449000       5.20266000
Ni       3.43129000       3.56284000       0.16824900
Fe       3.53488000       0.12707500       0.19162600
Ni       5.11904000       1.82938000       0.20562100
Fe       5.15888000       1.80460000       3.54084000
Ni       5.18944000       3.52987000       5.17560000
Fe       5.20116000       5.14528000       0.11222700
Fe       5.16831000       3.57161000       1.89466000
Ni       5.15519000       0.14708600       1.90244000
Fe       5.19045000       5.16053000       3.49986000
Ni       5.17756000       0.15006600       5.14279000
32
Lattice="6.671223929864507 0.0 0.0 0.0 6.691233037508057 0.0 0.0 0.0 6.672938204875701" Properties=species:S:1:pos:R:3 timestep=6000 structure_name=FCC_32_rank8_score0.1130_Fe20Ni12 temperature=100.0 pressure=1.0 pbc="T T T"
Ni       0.20838500       0.18310900       0.20458000
Ni       0.27378100       3.49707000       0.13989600
Fe       0.21326900       1.87922000       1.91205000
Ni       0.18705800       0.22144100       3.52379000
Fe       0.17990200       3.50785000       3.53632000
Fe       0.12000900       1.88188000       5.11160000
Ni       0.15533100       5.16931000       1.91287000
Ni       0.24784700       5.21642000       5.22505000
Fe       1.86602000       1.84478000       0.15413700
Fe       1.87902000       0.14991000       1.83522000
Ni       3.41763000       1.83467000       1.88739000
Fe       1.83193000       3.56183000       1.86600000
Fe       1.87369000       1.84278000       3.54396000
Ni       1.86874000       0.24991200       5.23016000
Fe       3.54379000       1.80909000       5.13102000
Fe       1.91101000       3.51071000       5.09972000
Fe       1.90171000       5.18578000       0.24061200
Fe       3.51307000       5.18263000       1.85024000
Fe       1.87829000       5.20569000       3.49678000
Fe       3.50894000       3.49725000       3.52004000
Fe       3.49936000       0.18077500       3.58610000
Fe       3.51588000       5.16199000       5.18429000
Ni       3.45729000       3.55003000       0.17694100
Fe       3.55097000       0.17120300       0.19211100
Ni       5.18366000       1.85853000       0.20876400
Fe       5.14429000       1.88541000       3.45783000
Ni       5.19579000       3.54951000       5.14996000
Fe       5.16565000       5.14250000       0.16023300
Fe       5.16596000       3.52249000       1.85820000
Ni       5.15239000       0.12798900       1.86831000
Fe       5.17566000       5.16598000       3.52256000
Ni       5.17115000       0.12376400       5.15536000
32
Lattice="6.682441283091407 0.0 0.0 0.0 6.687015837530353 0.0 0.0 0.0 6.671044527148589" Properties=species:S:1:pos:R:3 timestep=7000 structure_name=FCC_32_rank8_score0.1130_Fe20Ni12 temperature=100.0 pressure=1.0 pbc="T T T"
Ni       0.20990500       0.20131700       0.21458200
Ni       0.22350400       3.48185000       0.17293400
Fe       0.28449300       1.90916000       1.85841000
Ni       0.21264900       0.20298500       3.49548000
Fe       0.16666700       3.51526000       3.53450000
Fe       0.16032100       1.84926000       5.20629000
Ni       0.16265700       5.15263000       1.88125000
Ni       0.20610000       5.19084000       5.18305000
Fe       1.88401000       1.86253000       0.18861100
Fe       1.83030000       0.16536800       1.83184000
Ni       3.42424000       1.80689000       1.89226000
Fe       1.81273000       3.54131000       1.88244000
Fe       1.85051000       1.87521000       3.51270000
Ni       1.86173000       0.20168500       5.22956000
Fe       3.49209000       1.88232000       5.14260000
Fe       1.90074000       3.54026000       5.13922000
Fe       1.90281000       5.11803000       0.20667800
Fe       3.52646000       5.17773000       1.86898000
Fe       1.87833000       5.21897000       3.50019000
Fe       3.52901000       3.51490000       3.49359000
Fe       3.49798000       0.17689200       3.58451000
Fe       3.51897000       5.20172000       5.23406000
Ni       3.48653000       3.52076000       0.17872000
Fe       3.53270000       0.20272000       0.15544300
Ni       5.14798000       1.85782000       0.19767900
Fe       5.16387000       1.82117000       3.46099000
Ni       5.18209000       3.52733000       5.12733000
Fe       5.19431000       5.15239000       0.19251900
Fe       5.18298000       3.49642000       1.85614000
Ni       5.18963000       0.15920600       1.86268000
Fe       5.13213000       5.17143000       3.51305000
Ni       5.16558000       0.19670000       5.15620000
32
Lattice="6.6733532693819235 0.0 0.0 0.0 6.685674684086667 0.0 0.0 0.0 6.653299505589217" Properties=species:S:1:pos:R:3 timestep=8000 structure_name=FCC_32_rank8_score0.1130_Fe20Ni12 temperature=100.0 pressure=1.0 pbc="T T T"
Ni       0.21205300       0.17753700       0.18436700
Ni       0.20906900       3.51730000       0.21026200
Fe       0.20262800       1.87022000       1.85859000
Ni       0.25552200       0.21411300       3.46997000
Fe       0.10220700       3.47314000       3.48515000
Fe       0.21585400       1.88462000       5.27781000
Ni       0.19571300       5.16048000       1.87740000
Ni       0.22421100       5.19862000       5.13373000
Fe       1.89591000       1.85643000       0.16856700
Fe       1.91351000       0.20552600       1.86845000
Ni       3.45186000       1.86563000       1.92303000
Fe       1.83244000       3.50671000       1.85001000
Fe       1.80492000       1.93911000       3.53901000
Ni       1.85906000       0.19750300       5.15808000
Fe       3.49880000       1.81812000       5.11110000
Fe       1.87004000       3.52136000       5.21502000
Fe       1.85729000       5.21696000       0.21581200
Fe       3.54302000       5.23070000       1.84478000
Fe       1.98141000       5.15109000       3.51025000
Fe       3.54075000       3.49083000       3.51698000
Fe       3.49714000       0.18101300       3.52643000
Fe       3.50371000       5.23785000       5.20630000
Ni       3.49546000       3.58533000       0.21424800
Fe       3.47149000       0.14579000       0.18712400
Ni       5.14423000       1.81903000       0.21242600
Fe       5.17415000       1.82795000       3.53712000
Ni       5.14912000       3.47512000       5.12048000
Fe       5.18091000       5.16060000       0.12944800
Fe       5.15555000       3.49751000       1.87755000
Ni       5.19007000       0.13642600       1.85790000
Fe       5.14185000       5.18056000       3.54193000
Ni       5.17657000       0.15528000       5.19928000
32
Lattice="6.674051380734955 0.0 0.0 0.0 6.686818942704907 0.0 0.0 0.0 6.661680816044306" Properties=species:S:1:pos:R:3 timestep=9000 structure_name=FCC_32_rank8_score0.1130_Fe20Ni12 temperature=100.0 pressure=1.0 pbc="T T T"
Ni       0.22049400       0.16231800       0.20561400
Ni       0.18315400       3.51265000       0.16521800
Fe       0.12519700       1.86586000       1.84436000
Ni       0.18250800       0.20423900       3.50115000
Fe       0.17342100       3.53748000       3.50599000
Fe       0.20701100       1.85251000       5.21586000
Ni       0.16698000       5.12671000       1.88899000
Ni       0.21089600       5.17320000       5.15316000
Fe       1.88212000       1.94827000       0.14597300
Fe       1.82322000       0.20801700       1.85340000
Ni       3.50686000       1.84135000       1.91247000
Fe       1.86299000       3.47111000       1.86351000
Fe       1.83061000       1.92138000       3.56325000
Ni       1.91002000       0.17600500       5.18453000
Fe       3.54747000       1.92168000       5.17693000
Fe       1.87920000       3.54675000       5.21150000
Fe       1.83373000       5.14613000       0.18340000
Fe       3.54414000       5.23750000       1.85350000
Fe       1.91573000       5.13386000       3.46767000
Fe       3.54057000       3.53046000       3.50031000
Fe       3.50434000       0.19665200       3.54383000
Fe       3.50400000       5.17819000       5.19929000
Ni       3.52249000       3.60529000       0.20270900
Fe       3.48835000       0.13167400       0.15819100
Ni       5.16994000       1.84527000       0.22308000
Fe       5.20086000       1.85543000       3.51469000
Ni       5.18111000       3.46633000       5.11887000
Fe       5.15927000       5.15503000       0.18604700
Fe       5.15963000       3.50169000       1.85648000
Ni       5.19764000       0.12482500       1.84471000
Fe       5.13067000       5.14782000       3.56721000
Ni       5.17572000       0.17273300       5.18137000
32
Lattice="6.673345280045993 0.0 0.0 0.0 6.676229442962734 0.0 0.0 0.0 6.665123204099947" Properties=species:S:1:pos:R:3 timestep=10000 structure_name=FCC_32_rank8_score0.1130_Fe20Ni12 temperature=100.0 pressure=1.0 pbc="T T T"
Ni       0.21744800       0.17431400       0.22277500
Ni       0.18262000       3.50666000       0.19534100
Fe       0.20044400       1.87929000       1.91175000
Ni       0.17204800       0.16580600       3.51156000
Fe       0.23042600       3.55938000       3.46664000
Fe       0.21969800       1.85193000       5.17068000
Ni       0.22099300       5.17894000       1.82258000
Ni       0.17787100       5.17122000       5.19190000
Fe       1.88212000       1.88695000       0.21095100
Fe       1.87660000       0.18708200       1.89674000
Ni       3.47360000       1.85008000       1.86930000
Fe       1.86494000       3.53590000       1.85794000
Fe       1.88006000       1.86801000       3.52728000
Ni       1.90635000       0.20490700       5.18735000
Fe       3.49070000       1.89462000       5.24425000
Fe       1.86898000       3.52528000       5.18756000
Fe       1.91049000       5.13774000       0.15143900
Fe       3.46202000       5.15604000       1.89874000
Fe       1.90733000       5.15404000       3.50186000
Fe       3.45058000       3.47650000       3.49385000
Fe       3.56463000       0.23924200       3.48559000
Fe       3.50758000       5.20551000       5.18277000
Ni       3.53226000       3.53813000       0.16693000
Fe       3.44117000       0.14236900       0.20616400
Ni       5.19353000       1.85643000       0.18922500
Fe       5.16122000       1.88698000       3.46486000
Ni       5.17686000       3.50738000       5.10566000
Fe       5.15099000       5.17172000       0.16998700
Fe       5.17055000       3.49655000       1.88871000
Ni       5.16570000       0.13946100       1.86640000
Fe       5.13522000       5.17354000       3.52829000
Ni       5.15113000       0.21517600       5.20649000
32
Lattice="6.690509302007095 0.0 0.0 0.0 6.693746805279172 0.0 0.0 0.0 6.67724940991152" Properties=species:S:1:pos:R:3 timestep=11000 structure_name=FCC_32_rank8_score0.1130_Fe20Ni12 temperature=100.0 pressure=1.0 pbc="T T T"
Ni       0.21545500       0.18247500       0.13994000
Ni       0.17794600       3.49838000       0.20946300
Fe       0.22704200       1.91048000       1.94921000
Ni       0.19807500       0.16360800       3.55671000
Fe       0.25024900       3.54189000       3.47154000
Fe       0.22257600       1.87670000       5.18152000
Ni       0.18292300       5.18087000       1.82223000
Ni       0.17204500       5.20458000       5.19168000
Fe       1.87463000       1.82761000       0.19213500
Fe       1.82771000       0.21386300       1.86212000
Ni       3.46071000       1.82418000       1.85545000
Fe       1.86814000       3.53124000       1.85383000
Fe       1.85900000       1.85823000       3.52057000
Ni       1.91081000       0.19220800       5.18474000
Fe       3.46276000       1.87299000       5.19392000
Fe       1.84296000       3.55356000       5.19361000
Fe       1.84921000       5.20578000       0.14498000
Fe       3.46421000       5.19979000       1.86418000
Fe       1.93069000       5.13743000       3.50185000
Fe       3.48245000       3.47979000       3.55371000
Fe       3.49145000       0.20715600       3.50770000
Fe       3.51201000       5.14749000       5.12996000
Ni       3.51543000       3.52620000       0.18333500
Fe       3.52593000       0.13166700       0.21713100
Ni       5.21271000       1.85823000       0.18798800
Fe       5.11419000       1.83226000       3.49419000
Ni       5.18145000       3.49078000       5.09385000
Fe       5.18468000       5.15143000       0.22755400
Fe       5.19614000       3.59054000       1.88676000
Ni       5.18323000       0.11967300       1.82944000
Fe       5.16566000       5.19848000       3.52529000
Ni       5.11574000       0.16071800       5.20907000
32
Lattice="6.70041827630882 0.0 0.0 0.0 6.696177220497322 0.0 0.0 0.0 6.693720868095513" Properties=species:S:1:pos:R:3 timestep=12000 structure_name=FCC_32_rank8_score0.1130_Fe20Ni12 temperature=100.0 pressure=1.0 pbc="T T T"
Ni       0.18258800       0.22204300       0.18044000
Ni       0.21415500       3.51517000       0.18937600
Fe       0.15963200       1.88902000       1.86347000
Ni       0.15514800       0.16121800       3.54086000
Fe       0.20372700       3.52187000       3.56394000
Fe       0.16863500       1.84345000       5.16306000
Ni       0.16547700       5.17584000       1.86616000
Ni       0.21792900       5.22704000       5.17763000
Fe       1.89668000       1.81218000       0.18818200
Fe       1.81954000       0.19126600       1.84082000
Ni       3.51691000       1.80652000       1.87741000
Fe       1.88486000       3.55891000       1.85003000
Fe       1.83293000       1.88172000       3.48594000
Ni       1.90459000       0.20454600       5.15147000
Fe       3.50751000       1.87510000       5.22864000
Fe       1.86416000       3.47992000       5.14137000
Fe       1.86188000       5.16910000       0.18818500
Fe       3.55180000       5.18756000       1.84362000
Fe       1.93011000       5.14404000       3.51254000
Fe       3.49831000       3.52060000       3.56498000
Fe       3.50390000       0.20915300       3.54168000
Fe       3.46816000       5.10598000       5.14553000
Ni       3.48404000       3.55425000       0.15240400
Fe       3.47780000       0.07917390       0.20125200
Ni       5.16127000       1.87391000       0.15996100
Fe       5.14509000       1.84133000       3.49669000
Ni       5.20060000       3.52920000       5.12628000
Fe       5.19278000       5.15822000       0.14807500
Fe       5.16914000       3.56678000       1.92277000
Ni       5.21381000       0.16311800       1.84491000
Fe       5.17134000       5.18848000       3.50902000
Ni       5.11304000       0.19220500       5.20138000
32
Lattice="6.700889642616136 0.0 0.0 0.0 6.712401688632081 0.0 0.0 0.0 6.6858033309554195" Properties=species:S:1:pos:R:3 timestep=13000 structure_name=FCC_32_rank8_score0.1130_Fe20Ni12 temperature=100.0 pressure=1.0 pbc="T T T"
Ni       0.18094100       0.16916500       0.14399800
Ni       0.19171800       3.48694000       0.19897200
Fe       0.18864100       1.85577000       1.86458000
Ni       0.18580300       0.18321800       3.57216000
Fe       0.17707400       3.50773000       3.46420000
Fe       0.20600000       1.90427000       5.19472000
Ni       0.15517300       5.20796000       1.88763000
Ni       0.18581500       5.18007000       5.17389000
Fe       1.81992000       1.85418000       0.20920300
Fe       1.82886000       0.16759400       1.81430000
Ni       3.51747000       1.84485000       1.86665000
Fe       1.89936000       3.53768000       1.85099000
Fe       1.86390000       1.84019000       3.45905000
Ni       1.87475000       0.22652600       5.20292000
Fe       3.48933000       1.81421000       5.16643000
Fe       1.90859000       3.53349000       5.17679000
Fe       1.86398000       5.15413000       0.18140300
Fe       3.47956000       5.18921000       1.85638000
Fe       1.89290000       5.17751000       3.47169000
Fe       3.48626000       3.49165000       3.56813000
Fe       3.48890000       0.18489800       3.48455000
Fe       3.53007000       5.17891000       5.20814000
Ni       3.48768000       3.55545000       0.17916900
Fe       3.47206000       0.10397300       0.16292700
Ni       5.19993000       1.83684000       0.17617000
Fe       5.18745000       1.86277000       3.58413000
Ni       5.22500000       3.54402000       5.15677000
Fe       5.21671000       5.18437000       0.21758500
Fe       5.13232000       3.53546000       1.90302000
Ni       5.21612000       0.18012000       1.85542000
Fe       5.09541000       5.18064000       3.46490000
Ni       5.18410000       0.11307100       5.17731000
32
Lattice="6.721161702619288 0.0 0.0 0.0 6.712591558869152 0.0 0.0 0.0 6.683879259606446" Properties=species:S:1:pos:R:3 timestep=14000 structure_name=FCC_32_rank8_score0.1130_Fe20Ni12 temperature=100.0 pressure=1.0 pbc="T T T"
Ni       0.19792800       0.14286000       0.19859500
Ni       0.18836300       3.55178000       0.16839500
Fe       0.15957900       1.87264000       1.81628000
Ni       0.18569100       0.23456400       3.47741000
Fe       0.21631000       3.48174000       3.52265000
Fe       0.16075600       1.84113000       5.23457000
Ni       0.18155700       5.14290000       1.91008000
Ni       0.18506800       5.21699000       5.13820000
Fe       1.80959000       1.82900000       0.23889100
Fe       1.88530000       0.12239100       1.87152000
Ni       3.48153000       1.79760000       1.88391000
Fe       1.83873000       3.55016000       1.84519000
Fe       1.82518000       1.83701000       3.48694000
Ni       1.88581000       0.22953600       5.20800000
Fe       3.50207000       1.87569000       5.15456000
Fe       1.82435000       3.49294000       5.10656000
Fe       1.90446000       5.20773000       0.14888300
Fe       3.49230000       5.22275000       1.84968000
Fe       1.92330000       5.16375000       3.59381000
Fe       3.54004000       3.55982000       3.52221000
Fe       3.52084000       0.13879500       3.49714000
Fe       3.55082000       5.16460000       5.20942000
Ni       3.46610000       3.50704000       0.15651400
Fe       3.46770000       0.11402700       0.17049300
Ni       5.15899000       1.85268000       0.18803500
Fe       5.20824000       1.83445000       3.55396000
Ni       5.23115000       3.57164000       5.13868000
Fe       5.15560000       5.15927000       0.21104300
Fe       5.15492000       3.54084000       1.86657000
Ni       5.20598000       0.15985400       1.82776000
Fe       5.11750000       5.21541000       3.51039000
Ni       5.12865000       0.15285500       5.20055000
32
Lattice="6.713241735907475 0.0 0.0 0.0 6.7131387618359515 0.0 0.0 0.0 6.691612388472624" Properties=species:S:1:pos:R:3 timestep=15000 structure_name=FCC_32_rank8_score0.1130_Fe20Ni12 temperature=100.0 pressure=1.0 pbc="T T T"
Ni       0.14516600       0.16307100       0.16291900
Ni       0.20338000       3.55122000       0.21591700
Fe       0.19867400       1.85943000       1.84986000
Ni       0.18611800       0.19425400       3.50758000
Fe       0.17232800       3.50049000       3.54393000
Fe       0.16829400       1.86382000       5.19139000
Ni       0.19224900       5.18826000       1.90586000
Ni       0.19778100       5.18671000       5.17407000